23
	Energy:     223.0053299
C         -4.30975        0.27028       -0.13424
C         -3.09332       -0.61298       -0.34108
S         -4.17267        1.74580       -1.27762
C         -4.32575        0.79548        1.27777
C         -5.58133       -0.50392       -0.42241
N         -4.30209        2.18481        1.25944
C         -4.29423       -0.00717        2.51596
C         -4.29788        2.88954        0.10172
C         -3.48144        3.08398        1.78695
C         -3.38284        4.01907        0.57765
O         -4.28118       -1.22604        2.46061
O         -4.29382        0.60183        3.71664
O         -2.70188        2.90515        2.71034
N         -2.09276        3.90257       -0.05910
C         -1.12877        4.84480        0.06578
C         -1.34793        6.08381        0.88868
O         -0.06082        4.68443       -0.50279
C         -0.41083        6.14275        2.05067
C         -0.46336        5.17113        3.05898
C          0.51560        7.18695        2.14061
C          0.41167        5.24015        4.14681
C          1.39091        7.25604        3.22914
C          1.33936        6.28250        4.23156
